
    -----------------------------------------------------------------------
          Psi4: An Open-Source Ab Initio Electronic Structure Package
                               Psi4 1.4a2.dev1101 

                         Git: Rev {master} f007a29 dirty


    D. G. A. Smith, L. A. Burns, A. C. Simmonett, R. M. Parrish,
    M. C. Schieber, R. Galvelis, P. Kraus, H. Kruse, R. Di Remigio,
    A. Alenaizan, A. M. James, S. Lehtola, J. P. Misiewicz, M. Scheurer,
    R. A. Shaw, J. B. Schriber, Y. Xie, Z. L. Glick, D. A. Sirianni,
    J. S. O'Brien, J. M. Waldrop, A. Kumar, E. G. Hohenstein,
    B. P. Pritchard, B. R. Brooks, H. F. Schaefer III, A. Yu. Sokolov,
    K. Patkowski, A. E. DePrince III, U. Bozkaya, R. A. King,
    F. A. Evangelista, J. M. Turney, T. D. Crawford, C. D. Sherrill,
    J. Chem. Phys. 152(18) 184108 (2020). https://doi.org/10.1063/5.0006002

                            Additional Code Authors
    E. T. Seidl, C. L. Janssen, E. F. Valeev, M. L. Leininger,
    J. F. Gonthier, R. M. Richard, H. R. McAlexander, M. Saitow, X. Wang,
    P. Verma, and M. H. Lechner

             Previous Authors, Complete List of Code Contributors,
                       and Citations for Specific Modules
    https://github.com/psi4/psi4/blob/master/codemeta.json
    https://github.com/psi4/psi4/graphs/contributors
    http://psicode.org/psi4manual/master/introduction.html#citing-psifour

    -----------------------------------------------------------------------


    Psi4 started on: Thursday, 03 December 2020 02:06AM

    Process ID: 25504
    Host:       ds10
    PSIDATADIR: /theoryfs2/ds/glick/gits/psi4/objdir/stage/share/psi4
    Memory:     500.0 MiB
    Threads:    6
    
  ==> Input File <==

--------------------------------------------------------------------------
memory 60 GB

molecule h2o_dimer {
0 1
O  -1.551007  -0.114520   0.000000
H  -1.934259   0.762503   0.000000
H  -0.599677   0.040712   0.000000
--
0 1
O   1.350625   0.111469   0.000000
H   1.680398  -0.373741  -0.758561
H   1.680398  -0.373741   0.758561
}

set basis jun-cc-pvdz
energy('sapt2+3', molecule=h2o_dimer)
--------------------------------------------------------------------------

  Memory set to  55.879 GiB by Python driver.

Scratch directory: /scratch/glick/
  SAPT does not make use of molecular symmetry, further calculations in C1 point group.

  //>>>>>>>>>>>>>>>>>>>>>>>>>>>>>>>>>>>//
  //              Dimer HF             //
  //<<<<<<<<<<<<<<<<<<<<<<<<<<<<<<<<<<<//


*** tstart() called on ds10
*** at Thu Dec  3 02:06:49 2020

   => Loading Basis Set <=

    Name: JUN-CC-PVDZ
    Role: ORBITAL
    Keyword: BASIS
    atoms 1, 4     entry O          line   232 file /theoryfs2/ds/glick/gits/psi4/objdir/stage/share/psi4/basis/jun-cc-pvdz.gbs 
    atoms 2-3, 5-6 entry H          line    36 file /theoryfs2/ds/glick/gits/psi4/objdir/stage/share/psi4/basis/jun-cc-pvdz.gbs 


         ---------------------------------------------------------
                                   SCF
               by Justin Turney, Rob Parrish, Andy Simmonett
                          and Daniel G. A. Smith
                              RHF Reference
                        6 Threads,  57220 MiB Core
         ---------------------------------------------------------

  ==> Geometry <==

    Molecular point group: c1
    Full point group: Cs

    Geometry (in Angstrom), charge = 0, multiplicity = 1:

       Center              X                  Y                   Z               Mass       
    ------------   -----------------  -----------------  -----------------  -----------------
         O           -1.485163346101    -0.114724564047     0.000000000000    15.994914619570
         H           -1.868415346101     0.762298435953     0.000000000000     1.007825032230
         H           -0.533833346101     0.040507435953     0.000000000000     1.007825032230
         O            1.416468653899     0.111264435953     0.000000000000    15.994914619570
         H            1.746241653899    -0.373945564047    -0.758561000000     1.007825032230
         H            1.746241653899    -0.373945564047     0.758561000000     1.007825032230

  Running in c1 symmetry.

  Rotational constants: A =      7.15151  B =      0.21457  C =      0.21447 [cm^-1]
  Rotational constants: A = 214396.91837  B =   6432.69061  C =   6429.61818 [MHz]
  Nuclear repulsion =   36.662847996863405

  Charge       = 0
  Multiplicity = 1
  Electrons    = 20
  Nalpha       = 10
  Nbeta        = 10

  ==> Algorithm <==

  SCF Algorithm Type is DF.
  DIIS enabled.
  MOM disabled.
  Fractional occupation disabled.
  Guess Type is SAD.
  Energy threshold   = 1.00e-08
  Density threshold  = 1.00e-08
  Integral threshold = 0.00e+00

  ==> Primary Basis <==

  Basis Set: JUN-CC-PVDZ
    Blend: JUN-CC-PVDZ
    Number of shells: 28
    Number of basis function: 56
    Number of Cartesian functions: 58
    Spherical Harmonics?: true
    Max angular momentum: 2

   => Loading Basis Set <=

    Name: (JUN-CC-PVDZ AUX)
    Role: JKFIT
    Keyword: DF_BASIS_SCF
    atoms 1, 4     entry O          line   258 file /theoryfs2/ds/glick/gits/psi4/objdir/stage/share/psi4/basis/jun-cc-pvdz-jkfit.gbs 
    atoms 2-3, 5-6 entry H          line    70 file /theoryfs2/ds/glick/gits/psi4/objdir/stage/share/psi4/basis/jun-cc-pvdz-jkfit.gbs 

  ==> Integral Setup <==

  ==> DiskDFJK: Density-Fitted J/K Matrices <==

    J tasked:                  Yes
    K tasked:                  Yes
    wK tasked:                  No
    OpenMP threads:              6
    Integrals threads:           6
    Memory [MiB]:            42915
    Algorithm:                Core
    Integral Cache:           SAVE
    Schwarz Cutoff:          1E-12
    Fitting Condition:       1E-10

   => Auxiliary Basis Set <=

  Basis Set: (JUN-CC-PVDZ AUX)
    Blend: JUN-CC-PVDZ-JKFIT
    Number of shells: 90
    Number of basis function: 250
    Number of Cartesian functions: 282
    Spherical Harmonics?: true
    Max angular momentum: 3

  Minimum eigenvalue in the overlap matrix is 6.7798161243E-03.
  Reciprocal condition number of the overlap matrix is 1.2988827670E-03.
    Using symmetric orthogonalization.

  ==> Pre-Iterations <==

  SCF Guess: Superposition of Atomic Densities via on-the-fly atomic UHF (no occupation information).

   -------------------------
    Irrep   Nso     Nmo    
   -------------------------
     A         56      56 
   -------------------------
    Total      56      56
   -------------------------

  ==> Iterations <==

                           Total Energy        Delta E     RMS |[F,P]|

   @DF-RHF iter SAD:  -151.09310473782531   -1.51093e+02   0.00000e+00 
   @DF-RHF iter   1:  -151.93926611002038   -8.46161e-01   1.05004e-02 DIIS
   @DF-RHF iter   2:  -152.03648307619554   -9.72170e-02   6.37142e-03 DIIS
   @DF-RHF iter   3:  -152.08063040865548   -4.41473e-02   5.54464e-04 DIIS
   @DF-RHF iter   4:  -152.08137708316855   -7.46675e-04   1.17554e-04 DIIS
   @DF-RHF iter   5:  -152.08141415977906   -3.70766e-05   3.07758e-05 DIIS
   @DF-RHF iter   6:  -152.08141699303732   -2.83326e-06   1.42712e-05 DIIS
   @DF-RHF iter   7:  -152.08141741769180   -4.24654e-07   3.05114e-06 DIIS
   @DF-RHF iter   8:  -152.08141745594423   -3.82524e-08   3.63822e-07 DIIS
   @DF-RHF iter   9:  -152.08141745648805   -5.43821e-10   6.95690e-08 DIIS
   @DF-RHF iter  10:  -152.08141745650781   -1.97531e-11   1.70802e-08 DIIS
   @DF-RHF iter  11:  -152.08141745650900   -1.19371e-12   2.67142e-09 DIIS
  Energy and wave function converged.


  ==> Post-Iterations <==

    Orbital Energies [Eh]
    ---------------------

    Doubly Occupied:                                                      

       1A    -20.603072     2A    -20.545973     3A     -1.383875  
       4A     -1.326428     5A     -0.744433     6A     -0.696440  
       7A     -0.615347     8A     -0.560467     9A     -0.530147  
      10A     -0.480576  

    Virtual:                                                              

      11A      0.113581    12A      0.155789    13A      0.165407  
      14A      0.183489    15A      0.205833    16A      0.240287  
      17A      0.241145    18A      0.301123    19A      0.303773  
      20A      0.365976    21A      0.409056    22A      0.447116  
      23A      0.915134    24A      0.966320    25A      1.020877  
      26A      1.057960    27A      1.209584    28A      1.249694  
      29A      1.288333    30A      1.364093    31A      1.391455  
      32A      1.396747    33A      1.445048    34A      1.477761  
      35A      1.506342    36A      1.578446    37A      1.702296  
      38A      1.717813    39A      1.867806    40A      1.916214  
      41A      1.990184    42A      2.100324    43A      2.450741  
      44A      2.472218    45A      2.517666    46A      2.722116  
      47A      3.237332    48A      3.280534    49A      3.301573  
      50A      3.346789    51A      3.474364    52A      3.530470  
      53A      3.849394    54A      3.943139    55A      4.116244  
      56A      4.198709  

    Final Occupation by Irrep:
              A 
    DOCC [    10 ]

  @DF-RHF Final Energy:  -152.08141745650900

   => Energetics <=

    Nuclear Repulsion Energy =             36.6628479968634053
    One-Electron Energy =                -282.5150121744698026
    Two-Electron Energy =                  93.7707467210973959
    Total Energy =                       -152.0814174565090013

Computation Completed


Properties will be evaluated at   0.000000,   0.000000,   0.000000 [a0]

Properties computed using the SCF density matrix

  Nuclear Dipole Moment: [e a0]
     X:     1.0217      Y:     0.0515      Z:     0.0000

  Electronic Dipole Moment: [e a0]
     X:     0.0535      Y:    -0.0042      Z:    -0.0000

  Dipole Moment: [e a0]
     X:     1.0753      Y:     0.0472      Z:    -0.0000     Total:     1.0763

  Dipole Moment: [D]
     X:     2.7331      Y:     0.1200      Z:    -0.0000     Total:     2.7357


*** tstop() called on ds10 at Thu Dec  3 02:06:50 2020
Module time:
	user time   =       3.91 seconds =       0.07 minutes
	system time =       0.17 seconds =       0.00 minutes
	total time  =          1 seconds =       0.02 minutes
Total time:
	user time   =       3.91 seconds =       0.07 minutes
	system time =       0.17 seconds =       0.00 minutes
	total time  =          1 seconds =       0.02 minutes

  //>>>>>>>>>>>>>>>>>>>>>>>>>>>>>>>>>>>//
  //            Monomer A HF           //
  //<<<<<<<<<<<<<<<<<<<<<<<<<<<<<<<<<<<//


*** tstart() called on ds10
*** at Thu Dec  3 02:06:50 2020

   => Loading Basis Set <=

    Name: JUN-CC-PVDZ
    Role: ORBITAL
    Keyword: BASIS
    atoms 1, 4     entry O          line   232 file /theoryfs2/ds/glick/gits/psi4/objdir/stage/share/psi4/basis/jun-cc-pvdz.gbs 
    atoms 2-3, 5-6 entry H          line    36 file /theoryfs2/ds/glick/gits/psi4/objdir/stage/share/psi4/basis/jun-cc-pvdz.gbs 


         ---------------------------------------------------------
                                   SCF
               by Justin Turney, Rob Parrish, Andy Simmonett
                          and Daniel G. A. Smith
                              RHF Reference
                        6 Threads,  57220 MiB Core
         ---------------------------------------------------------

  ==> Geometry <==

    Molecular point group: c1
    Full point group: Cs

    Geometry (in Angstrom), charge = 0, multiplicity = 1:

       Center              X                  Y                   Z               Mass       
    ------------   -----------------  -----------------  -----------------  -----------------
         O           -1.485163346101    -0.114724564047     0.000000000000    15.994914619570
         H           -1.868415346101     0.762298435953     0.000000000000     1.007825032230
         H           -0.533833346101     0.040507435953     0.000000000000     1.007825032230
      Gh(O)           1.416468653899     0.111264435953     0.000000000000    15.994914619570
      Gh(H)           1.746241653899    -0.373945564047    -0.758561000000     1.007825032230
      Gh(H)           1.746241653899    -0.373945564047     0.758561000000     1.007825032230

  Running in c1 symmetry.

  Rotational constants: A =      7.15151  B =      0.21457  C =      0.21447 [cm^-1]
  Rotational constants: A = 214396.91837  B =   6432.69061  C =   6429.61818 [MHz]
  Nuclear repulsion =    9.163830181985562

  Charge       = 0
  Multiplicity = 1
  Electrons    = 10
  Nalpha       = 5
  Nbeta        = 5

  ==> Algorithm <==

  SCF Algorithm Type is DF.
  DIIS enabled.
  MOM disabled.
  Fractional occupation disabled.
  Guess Type is SAD.
  Energy threshold   = 1.00e-08
  Density threshold  = 1.00e-08
  Integral threshold = 0.00e+00

  ==> Primary Basis <==

  Basis Set: JUN-CC-PVDZ
    Blend: JUN-CC-PVDZ
    Number of shells: 28
    Number of basis function: 56
    Number of Cartesian functions: 58
    Spherical Harmonics?: true
    Max angular momentum: 2

   => Loading Basis Set <=

    Name: (JUN-CC-PVDZ AUX)
    Role: JKFIT
    Keyword: DF_BASIS_SCF
    atoms 1, 4     entry O          line   258 file /theoryfs2/ds/glick/gits/psi4/objdir/stage/share/psi4/basis/jun-cc-pvdz-jkfit.gbs 
    atoms 2-3, 5-6 entry H          line    70 file /theoryfs2/ds/glick/gits/psi4/objdir/stage/share/psi4/basis/jun-cc-pvdz-jkfit.gbs 

  ==> Integral Setup <==

  ==> DiskDFJK: Density-Fitted J/K Matrices <==

    J tasked:                  Yes
    K tasked:                  Yes
    wK tasked:                  No
    OpenMP threads:              6
    Integrals threads:           6
    Memory [MiB]:            42915
    Algorithm:                Core
    Integral Cache:           LOAD
    Schwarz Cutoff:          1E-12
    Fitting Condition:       1E-10

   => Auxiliary Basis Set <=

  Basis Set: (JUN-CC-PVDZ AUX)
    Blend: JUN-CC-PVDZ-JKFIT
    Number of shells: 90
    Number of basis function: 250
    Number of Cartesian functions: 282
    Spherical Harmonics?: true
    Max angular momentum: 3

  Minimum eigenvalue in the overlap matrix is 6.7798161243E-03.
  Reciprocal condition number of the overlap matrix is 1.2988827670E-03.
    Using symmetric orthogonalization.

  ==> Pre-Iterations <==

  SCF Guess: Superposition of Atomic Densities via on-the-fly atomic UHF (no occupation information).

   -------------------------
    Irrep   Nso     Nmo    
   -------------------------
     A         56      56 
   -------------------------
    Total      56      56
   -------------------------

  ==> Iterations <==

                           Total Energy        Delta E     RMS |[F,P]|

   @DF-RHF iter SAD:   -75.51096488682967   -7.55110e+01   0.00000e+00 
   @DF-RHF iter   1:   -75.95999919421976   -4.49034e-01   7.72507e-03 DIIS
   @DF-RHF iter   2:   -76.01115415087034   -5.11550e-02   4.86932e-03 DIIS
   @DF-RHF iter   3:   -76.03698982999288   -2.58357e-02   3.94482e-04 DIIS
   @DF-RHF iter   4:   -76.03735854298117   -3.68713e-04   8.75969e-05 DIIS
   @DF-RHF iter   5:   -76.03737808881178   -1.95458e-05   1.68568e-05 DIIS
   @DF-RHF iter   6:   -76.03737926990971   -1.18110e-06   3.67624e-06 DIIS
   @DF-RHF iter   7:   -76.03737933647723   -6.65675e-08   4.74173e-07 DIIS
   @DF-RHF iter   8:   -76.03737933743697   -9.59744e-10   8.20560e-08 DIIS
   @DF-RHF iter   9:   -76.03737933746466   -2.76827e-11   2.17718e-08 DIIS
   @DF-RHF iter  10:   -76.03737933746621   -1.54898e-12   2.37346e-09 DIIS
  Energy and wave function converged.


  ==> Post-Iterations <==

    Orbital Energies [Eh]
    ---------------------

    Doubly Occupied:                                                      

       1A    -20.577348     2A     -1.354910     3A     -0.717035  
       4A     -0.583890     5A     -0.508542  

    Virtual:                                                              

       6A      0.077058     7A      0.131148     8A      0.141446  
       9A      0.150454    10A      0.191039    11A      0.217979  
      12A      0.231385    13A      0.274707    14A      0.342650  
      15A      0.385551    16A      0.396892    17A      0.430286  
      18A      0.688314    19A      0.823400    20A      0.843642  
      21A      0.916089    22A      0.950468    23A      1.037700  
      24A      1.261430    25A      1.359314    26A      1.368625  
      27A      1.472178    28A      1.523556    29A      1.672495  
      30A      1.785360    31A      1.817804    32A      1.915855  
      33A      1.919362    34A      1.991314    35A      2.037182  
      36A      2.173435    37A      2.336047    38A      2.486060  
      39A      2.541671    40A      2.587023    41A      2.829816  
      42A      3.210315    43A      3.270462    44A      3.320104  
      45A      3.503839    46A      3.910437    47A      4.166983  
      48A      4.418755    49A      4.493515    50A      4.692623  
      51A      4.807062    52A      4.971844    53A      5.537277  
      54A      6.556219    55A      6.988943    56A     33.494131  

    Final Occupation by Irrep:
              A 
    DOCC [     5 ]

  @DF-RHF Final Energy:   -76.03737933746621

   => Energetics <=

    Nuclear Repulsion Energy =              9.1638301819855617
    One-Electron Energy =                -122.9189705556652541
    Two-Electron Energy =                  37.7177610362134814
    Total Energy =                        -76.0373793374662057

Computation Completed


Properties will be evaluated at   0.000000,   0.000000,   0.000000 [a0]

Properties computed using the SCF density matrix

  Nuclear Dipole Moment: [e a0]
     X:   -26.9920      Y:    -0.2173      Z:     0.0000

  Electronic Dipole Moment: [e a0]
     X:    27.4045      Y:     0.9743      Z:     0.0000

  Dipole Moment: [e a0]
     X:     0.4125      Y:     0.7570      Z:     0.0000     Total:     0.8621

  Dipole Moment: [D]
     X:     1.0484      Y:     1.9242      Z:     0.0000     Total:     2.1913


*** tstop() called on ds10 at Thu Dec  3 02:06:50 2020
Module time:
	user time   =       3.00 seconds =       0.05 minutes
	system time =       0.10 seconds =       0.00 minutes
	total time  =          0 seconds =       0.00 minutes
Total time:
	user time   =       6.93 seconds =       0.12 minutes
	system time =       0.28 seconds =       0.00 minutes
	total time  =          1 seconds =       0.02 minutes

  //>>>>>>>>>>>>>>>>>>>>>>>>>>>>>>>>>>>//
  //            Monomer B HF           //
  //<<<<<<<<<<<<<<<<<<<<<<<<<<<<<<<<<<<//


*** tstart() called on ds10
*** at Thu Dec  3 02:06:50 2020

   => Loading Basis Set <=

    Name: JUN-CC-PVDZ
    Role: ORBITAL
    Keyword: BASIS
    atoms 1, 4     entry O          line   232 file /theoryfs2/ds/glick/gits/psi4/objdir/stage/share/psi4/basis/jun-cc-pvdz.gbs 
    atoms 2-3, 5-6 entry H          line    36 file /theoryfs2/ds/glick/gits/psi4/objdir/stage/share/psi4/basis/jun-cc-pvdz.gbs 


         ---------------------------------------------------------
                                   SCF
               by Justin Turney, Rob Parrish, Andy Simmonett
                          and Daniel G. A. Smith
                              RHF Reference
                        6 Threads,  57220 MiB Core
         ---------------------------------------------------------

  ==> Geometry <==

    Molecular point group: c1
    Full point group: Cs

    Geometry (in Angstrom), charge = 0, multiplicity = 1:

       Center              X                  Y                   Z               Mass       
    ------------   -----------------  -----------------  -----------------  -----------------
      Gh(O)          -1.485163346101    -0.114724564047     0.000000000000    15.994914619570
      Gh(H)          -1.868415346101     0.762298435953     0.000000000000     1.007825032230
      Gh(H)          -0.533833346101     0.040507435953     0.000000000000     1.007825032230
         O            1.416468653899     0.111264435953     0.000000000000    15.994914619570
         H            1.746241653899    -0.373945564047    -0.758561000000     1.007825032230
         H            1.746241653899    -0.373945564047     0.758561000000     1.007825032230

  Running in c1 symmetry.

  Rotational constants: A =      7.15151  B =      0.21457  C =      0.21447 [cm^-1]
  Rotational constants: A = 214396.91837  B =   6432.69061  C =   6429.61818 [MHz]
  Nuclear repulsion =    9.178038940979068

  Charge       = 0
  Multiplicity = 1
  Electrons    = 10
  Nalpha       = 5
  Nbeta        = 5

  ==> Algorithm <==

  SCF Algorithm Type is DF.
  DIIS enabled.
  MOM disabled.
  Fractional occupation disabled.
  Guess Type is SAD.
  Energy threshold   = 1.00e-08
  Density threshold  = 1.00e-08
  Integral threshold = 0.00e+00

  ==> Primary Basis <==

  Basis Set: JUN-CC-PVDZ
    Blend: JUN-CC-PVDZ
    Number of shells: 28
    Number of basis function: 56
    Number of Cartesian functions: 58
    Spherical Harmonics?: true
    Max angular momentum: 2

   => Loading Basis Set <=

    Name: (JUN-CC-PVDZ AUX)
    Role: JKFIT
    Keyword: DF_BASIS_SCF
    atoms 1, 4     entry O          line   258 file /theoryfs2/ds/glick/gits/psi4/objdir/stage/share/psi4/basis/jun-cc-pvdz-jkfit.gbs 
    atoms 2-3, 5-6 entry H          line    70 file /theoryfs2/ds/glick/gits/psi4/objdir/stage/share/psi4/basis/jun-cc-pvdz-jkfit.gbs 

  ==> Integral Setup <==

  ==> DiskDFJK: Density-Fitted J/K Matrices <==

    J tasked:                  Yes
    K tasked:                  Yes
    wK tasked:                  No
    OpenMP threads:              6
    Integrals threads:           6
    Memory [MiB]:            42915
    Algorithm:                Core
    Integral Cache:           LOAD
    Schwarz Cutoff:          1E-12
    Fitting Condition:       1E-10

   => Auxiliary Basis Set <=

  Basis Set: (JUN-CC-PVDZ AUX)
    Blend: JUN-CC-PVDZ-JKFIT
    Number of shells: 90
    Number of basis function: 250
    Number of Cartesian functions: 282
    Spherical Harmonics?: true
    Max angular momentum: 3

  Minimum eigenvalue in the overlap matrix is 6.7798161243E-03.
  Reciprocal condition number of the overlap matrix is 1.2988827670E-03.
    Using symmetric orthogonalization.

  ==> Pre-Iterations <==

  SCF Guess: Superposition of Atomic Densities via on-the-fly atomic UHF (no occupation information).

   -------------------------
    Irrep   Nso     Nmo    
   -------------------------
     A         56      56 
   -------------------------
    Total      56      56
   -------------------------

  ==> Iterations <==

                           Total Energy        Delta E     RMS |[F,P]|

   @DF-RHF iter SAD:   -75.51277955557913   -7.55128e+01   0.00000e+00 
   @DF-RHF iter   1:   -75.96079401527177   -4.48014e-01   7.72045e-03 DIIS
   @DF-RHF iter   2:   -76.01163690574494   -5.08429e-02   4.87843e-03 DIIS
   @DF-RHF iter   3:   -76.03757934861046   -2.59424e-02   3.91447e-04 DIIS
   @DF-RHF iter   4:   -76.03794366866310   -3.64320e-04   8.64713e-05 DIIS
   @DF-RHF iter   5:   -76.03796291603564   -1.92474e-05   1.69824e-05 DIIS
   @DF-RHF iter   6:   -76.03796413504452   -1.21901e-06   3.74671e-06 DIIS
   @DF-RHF iter   7:   -76.03796420447176   -6.94272e-08   4.93119e-07 DIIS
   @DF-RHF iter   8:   -76.03796420551703   -1.04527e-09   8.43391e-08 DIIS
   @DF-RHF iter   9:   -76.03796420554585   -2.88196e-11   2.24029e-08 DIIS
   @DF-RHF iter  10:   -76.03796420554764   -1.79057e-12   2.47929e-09 DIIS
  Energy and wave function converged.


  ==> Post-Iterations <==

    Orbital Energies [Eh]
    ---------------------

    Doubly Occupied:                                                      

       1A    -20.577371     2A     -1.355542     3A     -0.718341  
       4A     -0.584096     5A     -0.508822  

    Virtual:                                                              

       6A      0.104692     7A      0.133848     8A      0.161668  
       9A      0.163041    10A      0.193248    11A      0.207790  
      12A      0.223033    13A      0.301069    14A      0.319108  
      15A      0.383388    16A      0.411747    17A      0.462121  
      18A      0.748270    19A      0.854155    20A      0.878064  
      21A      0.936052    22A      1.003369    23A      1.044323  
      24A      1.243599    25A      1.284134    26A      1.400378  
      27A      1.465123    28A      1.522489    29A      1.686854  
      30A      1.833816    31A      1.885003    32A      1.894867  
      33A      1.990569    34A      1.990884    35A      2.144410  
      36A      2.145851    37A      2.409502    38A      2.473477  
      39A      2.509548    40A      2.692517    41A      2.877330  
      42A      3.257933    43A      3.278194    44A      3.317372  
      45A      3.505242    46A      3.877590    47A      4.134939  
      48A      4.470618    49A      4.545172    50A      4.738700  
      51A      4.876309    52A      5.069522    53A      5.476797  
      54A      6.583845    55A      7.056009    56A     33.538436  

    Final Occupation by Irrep:
              A 
    DOCC [     5 ]

  @DF-RHF Final Energy:   -76.03796420554764

   => Energetics <=

    Nuclear Repulsion Energy =              9.1780389409790679
    One-Electron Energy =                -122.9436632328470154
    Two-Electron Energy =                  37.7276600863203129
    Total Energy =                        -76.0379642055476381

Computation Completed


Properties will be evaluated at   0.000000,   0.000000,   0.000000 [a0]

Properties computed using the SCF density matrix

  Nuclear Dipole Moment: [e a0]
     X:    28.0137      Y:     0.2688      Z:     0.0000

  Electronic Dipole Moment: [e a0]
     X:   -27.5492      Y:    -0.9690      Z:    -0.0000

  Dipole Moment: [e a0]
     X:     0.4646      Y:    -0.7002      Z:    -0.0000     Total:     0.8403

  Dipole Moment: [D]
     X:     1.1808      Y:    -1.7798      Z:    -0.0000     Total:     2.1359


*** tstop() called on ds10 at Thu Dec  3 02:06:51 2020
Module time:
	user time   =       2.80 seconds =       0.05 minutes
	system time =       0.10 seconds =       0.00 minutes
	total time  =          1 seconds =       0.02 minutes
Total time:
	user time   =       9.76 seconds =       0.16 minutes
	system time =       0.38 seconds =       0.01 minutes
	total time  =          2 seconds =       0.03 minutes
  Constructing Basis Sets for SAPT...

   => Loading Basis Set <=

    Name: (JUN-CC-PVDZ AUX)
    Role: RIFIT
    Keyword: DF_BASIS_SAPT
    atoms 1, 4     entry O          line   188 file /theoryfs2/ds/glick/gits/psi4/objdir/stage/share/psi4/basis/jun-cc-pvdz-ri.gbs 
    atoms 2-3, 5-6 entry H          line    30 file /theoryfs2/ds/glick/gits/psi4/objdir/stage/share/psi4/basis/jun-cc-pvdz-ri.gbs 


  //>>>>>>>>>>>>>>>>>>>>>>>>>>>>>>>>>>>//
  //              SAPT2+3              //
  //<<<<<<<<<<<<<<<<<<<<<<<<<<<<<<<<<<<//


*** tstart() called on ds10
*** at Thu Dec  3 02:06:51 2020

       SAPT2+3   
    Ed Hohenstein
     6 June 2009

      Orbital Information
  --------------------------
    NSO        =        56
    NMO        =        56
    NRI        =       186
    NOCC A     =         5
    NOCC B     =         5
    FOCC A     =         0
    FOCC B     =         0
    NVIR A     =        51
    NVIR B     =        51

    Estimated memory usage: 5.4 MB

    Natural Orbital Cutoff:   1.000E-06
    Disp(T3) Truncation:            Yes
    CCD (vv|vv) Truncation:         Yes
    MBPT T2 Truncation:             Yes

    Monomer A: 25 virtual orbitals dropped
    Monomer B: 23 virtual orbitals dropped

    Elst10,r            =    -0.014075016517 [Eh]
    Exch10 (S^2)        =     0.011304411814 [Eh]
    Exch10              =     0.011386840955 [Eh]
    Ind20,r (A<-B)      =    -0.001457344716 [Eh]
    Ind20,r (B<-A)      =    -0.003054073768 [Eh]
    Ind20,r             =    -0.004511418484 [Eh]
    Exch-Ind20,r (A<-B) =     0.000948220634 [Eh]
    Exch-Ind20,r (B<-A) =     0.001571916213 [Eh]
    Exch-Ind20,r        =     0.002520136847 [Eh]
    Disp20              =    -0.002577749702 [Eh]
    Disp20 (NO)         =    -0.002233396613 [Eh]
    Exch-Disp20         =     0.000548592565 [Eh]
    Elst12,r            =    -0.000118732308 [Eh]
    Exch11              =    -0.000073904575 [Eh]
    Exch12              =     0.002167557810 [Eh]
    Ind22               =    -0.000836797786 [Eh]
    Disp21              =     0.000060424186 [Eh]
    Disp22 (SDQ)        =    -0.000136845408 [Eh]

    (i =   1 of   5)          0 seconds
    (i =   2 of   5)          0 seconds
    (i =   3 of   5)          0 seconds
    (i =   4 of   5)          0 seconds
    (i =   5 of   5)          0 seconds

    Disp220 (T)         =    -0.000148573828 [Eh]

    (i =   1 of   5)          0 seconds
    (i =   2 of   5)          0 seconds
    (i =   3 of   5)          0 seconds
    (i =   4 of   5)          0 seconds
    (i =   5 of   5)          0 seconds

    Disp202 (T)         =    -0.000149379484 [Eh]

    Disp22 (T)          =    -0.000297953312 [Eh]

    Est. Disp220 (T)    =    -0.000171481473 [Eh]
    Est. Disp202 (T)    =    -0.000172411348 [Eh]

    Est. Disp22 (T)     =    -0.000343892821 [Eh]
    Elst13,r            =     0.000401506266 [Eh]
    Disp30              =     0.000033488190 [Eh]
    Exch-Disp30         =    -0.000005434998 [Eh]
    Ind30               =    -0.003580299155 [Eh]
    Ind30,r             =    -0.004994815404 [Eh]
    Exch-Ind30          =     0.003156115822 [Eh]
    Ind-Disp30          =    -0.000893716285 [Eh]
    Exch-Ind-Disp30     =     0.000719554688 [Eh]

    SAPT Results 
  --------------------------------------------------------------------------------------------------------
    Electrostatics                -13.79224256 [mEh]      -8.65476287 [kcal/mol]     -36.21152785 [kJ/mol]
      Elst10,r                    -14.07501652 [mEh]      -8.83220621 [kcal/mol]     -36.95395077 [kJ/mol]
      Elst12,r                     -0.11873231 [mEh]      -0.07450565 [kcal/mol]      -0.31173163 [kJ/mol]
      Elst13,r                      0.40150627 [mEh]       0.25194899 [kcal/mol]       1.05415456 [kJ/mol]

    Exchange                       13.48049419 [mEh]       8.45913782 [kcal/mol]      35.39303262 [kJ/mol]
      Exch10                       11.38684096 [mEh]       7.14535058 [kcal/mol]      29.89614681 [kJ/mol]
      Exch10(S^2)                  11.30441181 [mEh]       7.09362551 [kcal/mol]      29.67972913 [kJ/mol]
      Exch11(S^2)                  -0.07390457 [mEh]      -0.04637582 [kcal/mol]      -0.19403643 [kJ/mol]
      Exch12(S^2)                   2.16755781 [mEh]       1.36016306 [kcal/mol]       5.69092225 [kJ/mol]

    Induction                      -3.75508963 [mEh]      -2.35635432 [kcal/mol]      -9.85898646 [kJ/mol]
      Ind20,r                      -4.51141848 [mEh]      -2.83095784 [kcal/mol]     -11.84472760 [kJ/mol]
      Ind30,r                      -4.99481540 [mEh]      -3.13429399 [kcal/mol]     -13.11388604 [kJ/mol]
      Ind22                        -0.83679779 [mEh]      -0.52509854 [kcal/mol]      -2.19701228 [kJ/mol]
      Exch-Ind20,r                  2.52013685 [mEh]       1.58140975 [kcal/mol]       6.61661838 [kJ/mol]
      Exch-Ind30,r                  4.40304434 [mEh]       2.76295204 [kcal/mol]      11.56019132 [kJ/mol]
      Exch-Ind22                    0.46744609 [mEh]       0.29332685 [kcal/mol]       1.22727954 [kJ/mol]
      delta HF,r (2)               -1.39445630 [mEh]      -0.87503454 [kcal/mol]      -3.66114450 [kJ/mol]
      delta HF,r (3)               -0.80268523 [mEh]      -0.50369259 [kcal/mol]      -2.10744978 [kJ/mol]

    Dispersion                     -2.59557958 [mEh]      -1.62875078 [kcal/mol]      -6.81469326 [kJ/mol]
      Disp20                       -2.57774970 [mEh]      -1.61756236 [kcal/mol]      -6.76788091 [kJ/mol]
      Disp30                        0.03348819 [mEh]       0.02101416 [kcal/mol]       0.08792323 [kJ/mol]
      Disp21                        0.06042419 [mEh]       0.03791675 [kcal/mol]       0.15864368 [kJ/mol]
      Disp22 (SDQ)                 -0.13684541 [mEh]      -0.08587179 [kcal/mol]      -0.35928757 [kJ/mol]
      Disp22 (T)                   -0.29795331 [mEh]      -0.18696853 [kcal/mol]      -0.78227631 [kJ/mol]
      Est. Disp22 (T)              -0.34389282 [mEh]      -0.21579600 [kcal/mol]      -0.90289048 [kJ/mol]
      Exch-Disp20                   0.54859256 [mEh]       0.34424703 [kcal/mol]       1.44032958 [kJ/mol]
      Exch-Disp30                  -0.00543500 [mEh]      -0.00341051 [kcal/mol]      -0.01426958 [kJ/mol]
      Ind-Disp30                   -0.89371628 [mEh]      -0.56081544 [kcal/mol]      -2.34645178 [kJ/mol]
      Exch-Ind-Disp30               0.71955469 [mEh]       0.45152738 [kcal/mol]       1.88919057 [kJ/mol]

  Total HF                         -6.07391350 [mEh]      -3.81143826 [kcal/mol]     -15.94705768 [kJ/mol]
  Total SAPT0                      -8.10307063 [mEh]      -5.08475359 [kcal/mol]     -21.27460901 [kJ/mol]
  Total SAPT2                      -6.49750140 [mEh]      -4.07724368 [kcal/mol]     -17.05918758 [kJ/mol]
  Total SAPT2+                     -6.91781544 [mEh]      -4.34099473 [kcal/mol]     -18.16272194 [kJ/mol]
  Total SAPT2+(3)                  -6.48282099 [mEh]      -4.06803159 [kcal/mol]     -17.02064415 [kJ/mol]
  Total SAPT2+3                    -6.66241758 [mEh]      -4.18073015 [kcal/mol]     -17.49217495 [kJ/mol]

  Special recipe for scaled SAPT0 (see Manual):
    Electrostatics sSAPT0         -14.07501652 [mEh]      -8.83220621 [kcal/mol]     -36.95395077 [kJ/mol]
    Exchange sSAPT0                11.38684096 [mEh]       7.14535058 [kcal/mol]      29.89614681 [kJ/mol]
    Induction sSAPT0               -3.33020622 [mEh]      -2.08973595 [kcal/mol]      -8.74345521 [kJ/mol]
    Dispersion sSAPT0              -2.01706879 [mEh]      -1.26572978 [kcal/mol]      -5.29581338 [kJ/mol]
  Total sSAPT0                     -8.03545057 [mEh]      -5.04232136 [kcal/mol]     -21.09707256 [kJ/mol]
  --------------------------------------------------------------------------------------------------------

*** tstop() called on ds10 at Thu Dec  3 02:06:52 2020
Module time:
	user time   =       3.16 seconds =       0.05 minutes
	system time =       0.17 seconds =       0.00 minutes
	total time  =          1 seconds =       0.02 minutes
Total time:
	user time   =      13.13 seconds =       0.22 minutes
	system time =       0.56 seconds =       0.01 minutes
	total time  =          3 seconds =       0.05 minutes

    Psi4 stopped on: Thursday, 03 December 2020 02:06AM
    Psi4 wall time for execution: 0:00:03.00

*** Psi4 exiting successfully. Buy a developer a beer!
